#Interaction two-body operators
2 BANDS
1 u 1 d 1 u 1 d    1.000000000000E+00
1 d 1 u 1 d 1 u    1.000000000000E+00
2 u 2 d 2 u 2 d    1.000000000000E+00
2 d 2 u 2 d 2 u    1.000000000000E+00
1 d 2 u 1 d 2 u    1.000000000000E+00
1 u 2 d 1 u 2 d    1.000000000000E+00
2 d 1 u 2 d 1 u    1.000000000000E+00
2 u 1 d 2 u 1 d    1.000000000000E+00
1 u 2 u 1 u 2 u    1.000000000000E+00
1 d 2 d 1 d 2 d    1.000000000000E+00
2 u 1 u 2 u 1 u    1.000000000000E+00
2 d 1 d 2 d 1 d    1.000000000000E+00
1 u 2 u 2 u 1 u    1.000000000000E-02
1 d 2 d 2 d 1 d    1.000000000000E-02
2 u 1 u 1 u 2 u    1.000000000000E-02
2 d 1 d 1 d 2 d    1.000000000000E-02
1 d 2 u 2 d 1 u    1.000000000000E-02
1 u 2 d 2 u 1 d    1.000000000000E-02
2 d 1 u 1 d 2 u    1.000000000000E-02
2 u 1 d 1 u 2 d    1.000000000000E-02
1 d 1 u 2 d 2 u    1.000000000000E-02
1 u 1 d 2 u 2 d    1.000000000000E-02
2 d 2 u 1 d 1 u    1.000000000000E-02
2 u 2 d 1 u 1 d    1.000000000000E-02
