# w2dyn-written: <Kan: U=100 U'=10 J=1>
2 BANDS
1 d 1 u 1 d 1 u 100.0
1 u 1 d 1 u 1 d 100.0
2 d 2 u 2 d 2 u 100.0
2 u 2 d 2 u 2 d 100.0

1 d 2 d 1 d 2 d 10.0
1 d 2 u 1 d 2 u 10.0
1 u 2 d 1 u 2 d 10.0
1 u 2 u 1 u 2 u 10.0
2 d 1 d 2 d 1 d 10.0
2 d 1 u 2 d 1 u 10.0
2 u 1 d 2 u 1 d 10.0
2 u 1 u 2 u 1 u 10.0

1 d 1 u 2 d 2 u 1.0
1 d 2 d 2 d 1 d 1.0
1 d 2 u 2 d 1 u 1.0
1 u 1 d 2 u 2 d 1.0
1 u 2 d 2 u 1 d 1.0
1 u 2 u 2 u 1 u 1.0
2 d 1 d 1 d 2 d 1.0
2 d 1 u 1 d 2 u 1.0
2 d 2 u 1 d 1 u 1.0
2 u 1 d 1 u 2 d 1.0
2 u 1 u 1 u 2 u 1.0
2 u 2 d 1 u 1 d 1.0
