#Interaction two-body operators
1 BANDS
1 u 1 d 1 u 1 d    2.000000000000E+00
1 d 1 u 1 d 1 u    2.000000000000E+00
